# vtk DataFile Version 3.0
Hoa Lac AOI polygon cage
ASCII
DATASET POLYDATA
POINTS 16 float
0.000000 3643.064750 0.000000
942.748301 1321.840381 0.000000
2869.982856 0.000000 0.000000
5519.428539 341.036651 0.000000
7280.908903 1896.751915 0.000000
6961.008178 4164.514073 0.000000
4619.214776 5207.757834 0.000000
1762.163580 5032.181551 0.000000
0.000000 3643.064750 3000.000000
942.748301 1321.840381 3000.000000
2869.982856 0.000000 3000.000000
5519.428539 341.036651 3000.000000
7280.908903 1896.751915 3000.000000
6961.008178 4164.514073 3000.000000
4619.214776 5207.757834 3000.000000
1762.163580 5032.181551 3000.000000
LINES 10 44
9 0 1 2 3 4 5 6 7 0
9 8 9 10 11 12 13 14 15 8
2 0 8
2 1 9
2 2 10
2 3 11
2 4 12
2 5 13
2 6 14
2 7 15
POINT_DATA 16
SCALARS polygon_level int 1
LOOKUP_TABLE default
0
0
0
0
0
0
0
0
1
1
1
1
1
1
1
1
CELL_DATA 10
SCALARS line_type int 1
LOOKUP_TABLE default
0
1
2
2
2
2
2
2
2
2
